LAMMPS data file Created by LigParGen - (Written by Leela S. Dodda)

     125 atoms
     130 bonds
     220 angles
     290 dihedrals
      70 impropers
 
     125 atom types
     130 bond types
     220 angle types
     290 dihedral types
      70 improper types
 
   -6.625050    43.374950 xlo xhi
   -1.148760    48.851240 ylo yhi
   -8.970370    41.029630 zlo zhi

Masses

       1     12.011  
       2     12.011  
       3     12.011  
       4     12.011  
       5     12.011  
       6     15.999  
       7     12.011  
       8      1.008  
       9     12.011  
      10      1.008  
      11      1.008  
      12     12.011  
      13      1.008  
      14     12.011  
      15     12.011  
      16     12.011  
      17     12.011  
      18     15.999  
      19     12.011  
      20      1.008  
      21      1.008  
      22     12.011  
      23      1.008  
      24      1.008  
      25     12.011  
      26     15.999  
      27     12.011  
      28      1.008  
      29     12.011  
      30     15.999  
      31     12.011  
      32     12.011  
      33     12.011  
      34      1.008  
      35     12.011  
      36     15.999  
      37     12.011  
      38      1.008  
      39      1.008  
      40     12.011  
      41     15.999  
      42     12.011  
      43      1.008  
      44     12.011  
      45     12.011  
      46      1.008  
      47      1.008  
      48     12.011  
      49     15.999  
      50     12.011  
      51      1.008  
      52     12.011  
      53     15.999  
      54     12.011  
      55      1.008  
      56      1.008  
      57     15.999  
      58     12.011  
      59      1.008  
      60      1.008  
      61     12.011  
      62     12.011  
      63      1.008  
      64      1.008  
      65     12.011  
      66     12.011  
      67     12.011  
      68     15.999  
      69     12.011  
      70      1.008  
      71      1.008  
      72     15.999  
      73     12.011  
      74      1.008  
      75      1.008  
      76     12.011  
      77      1.008  
      78     12.011  
      79     15.999  
      80     12.011  
      81     12.011  
      82     15.999  
      83     12.011  
      84     15.999  
      85      1.008  
      86     12.011  
      87     12.011  
      88      1.008  
      89     12.011  
      90     15.999  
      91     12.011  
      92     12.011  
      93     12.011  
      94      1.008  
      95      1.008  
      96     12.011  
      97     15.999  
      98      1.008  
      99     12.011  
     100      1.008  
     101      1.008  
     102     12.011  
     103      1.008  
     104      1.008  
     105     15.999  
     106     12.011  
     107     12.011  
     108      1.008  
     109      1.008  
     110     15.999  
     111     12.011  
     112      1.008  
     113      1.008  
     114     15.999  
     115     15.999  
     116      1.008  
     117      1.008  
     118      1.008  
     119      1.008  
     120      1.008  
     121      1.008  
     122      1.008  
     123      1.008  
     124      1.008  
     125      1.008  

Pair Coeffs 

       1      0.070  3.5500000 
       2      0.070  3.5500000 
       3      0.070  3.5500000 
       4      0.066  3.5000000 
       5      0.070  3.5500000 
       6      0.140  2.9000000 
       7      0.070  3.5500000 
       8      0.030  2.4200000 
       9      0.070  3.5500000 
      10      0.030  2.5000000 
      11      0.030  2.5000000 
      12      0.070  3.5500000 
      13      0.030  2.4200000 
      14      0.066  3.5000000 
      15      0.066  3.5000000 
      16      0.070  3.5500000 
      17      0.070  3.5500000 
      18      0.140  2.9000000 
      19      0.070  3.5500000 
      20      0.030  2.5000000 
      21      0.030  2.5000000 
      22      0.070  3.5500000 
      23      0.030  2.5000000 
      24      0.030  2.5000000 
      25      0.070  3.5500000 
      26      0.140  2.9000000 
      27      0.070  3.5500000 
      28      0.030  2.4200000 
      29      0.066  3.5000000 
      30      0.210  2.9600000 
      31      0.070  3.5500000 
      32      0.070  3.5500000 
      33      0.070  3.5500000 
      34      0.030  2.4200000 
      35      0.066  3.5000000 
      36      0.140  2.9000000 
      37      0.070  3.5500000 
      38      0.030  2.5000000 
      39      0.030  2.5000000 
      40      0.070  3.5500000 
      41      0.140  2.9000000 
      42      0.070  3.5500000 
      43      0.030  2.4200000 
      44      0.066  3.5000000 
      45      0.070  3.5500000 
      46      0.030  2.5000000 
      47      0.030  2.5000000 
      48      0.066  3.5000000 
      49      0.210  2.9600000 
      50      0.070  3.5500000 
      51      0.030  2.4200000 
      52      0.066  3.5000000 
      53      0.140  2.9000000 
      54      0.070  3.5500000 
      55      0.030  2.5000000 
      56      0.030  2.5000000 
      57      0.210  2.9600000 
      58      0.070  3.5500000 
      59      0.030  2.5000000 
      60      0.030  2.5000000 
      61      0.066  3.5000000 
      62      0.070  3.5500000 
      63      0.030  2.5000000 
      64      0.030  2.5000000 
      65      0.066  3.5000000 
      66      0.070  3.5500000 
      67      0.070  3.5500000 
      68      0.210  2.9600000 
      69      0.070  3.5500000 
      70      0.030  2.5000000 
      71      0.030  2.5000000 
      72      0.210  2.9600000 
      73      0.070  3.5500000 
      74      0.030  2.5000000 
      75      0.030  2.5000000 
      76      0.070  3.5500000 
      77      0.030  2.4200000 
      78      0.070  3.5500000 
      79      0.140  2.9000000 
      80      0.070  3.5500000 
      81      0.070  3.5500000 
      82      0.210  2.9600000 
      83      0.070  3.5500000 
      84      0.140  2.9000000 
      85      0.030  2.4200000 
      86      0.066  3.5000000 
      87      0.070  3.5500000 
      88      0.030  2.4200000 
      89      0.070  3.5500000 
      90      0.140  2.9000000 
      91      0.066  3.5000000 
      92      0.066  3.5000000 
      93      0.070  3.5500000 
      94      0.030  2.5000000 
      95      0.030  2.5000000 
      96      0.070  3.5500000 
      97      0.140  2.9000000 
      98      0.030  2.4200000 
      99      0.066  3.5000000 
     100      0.030  2.5000000 
     101      0.030  2.5000000 
     102      0.070  3.5500000 
     103      0.030  2.5000000 
     104      0.030  2.5000000 
     105      0.210  2.9600000 
     106      0.066  3.5000000 
     107      0.070  3.5500000 
     108      0.030  2.5000000 
     109      0.030  2.5000000 
     110      0.210  2.9600000 
     111      0.070  3.5500000 
     112      0.030  2.5000000 
     113      0.030  2.5000000 
     114      0.210  2.9600000 
     115      0.210  2.9600000 
     116      0.030  2.5000000 
     117      0.030  2.5000000 
     118      0.030  2.5000000 
     119      0.030  2.5000000 
     120      0.030  2.5000000 
     121      0.030  2.5000000 
     122      0.030  2.5000000 
     123      0.030  2.5000000 
     124      0.030  2.5000000 
     125      0.030  2.5000000 

Bond Coeffs 

       1   469.0000     1.4000 
       2   469.0000     1.4000 
       3   317.0000     1.5100 
       4   469.0000     1.4000 
       5   450.0000     1.3640 
       6   469.0000     1.4000 
       7   367.0000     1.0800 
       8   317.0000     1.5100 
       9   340.0000     1.0900 
      10   340.0000     1.0900 
      11   469.0000     1.4000 
      12   367.0000     1.0800 
      13   320.0000     1.4100 
      14   317.0000     1.5100 
      15   469.0000     1.4000 
      16   469.0000     1.4000 
      17   450.0000     1.3640 
      18   317.0000     1.5220 
      19   340.0000     1.0900 
      20   340.0000     1.0900 
      21   317.0000     1.5100 
      22   340.0000     1.0900 
      23   340.0000     1.0900 
      24   469.0000     1.4000 
      25   450.0000     1.3640 
      26   469.0000     1.4000 
      27   367.0000     1.0800 
      28   320.0000     1.4100 
      29   570.0000     1.2290 
      30   469.0000     1.4000 
      31   469.0000     1.4000 
      32   469.0000     1.4000 
      33   367.0000     1.0800 
      34   320.0000     1.4100 
      35   450.0000     1.3640 
      36   317.0000     1.5220 
      37   340.0000     1.0900 
      38   340.0000     1.0900 
      39   469.0000     1.4000 
      40   450.0000     1.3640 
      41   469.0000     1.4000 
      42   367.0000     1.0800 
      43   317.0000     1.5100 
      44   317.0000     1.5220 
      45   340.0000     1.0900 
      46   340.0000     1.0900 
      47   320.0000     1.4100 
      48   570.0000     1.2290 
      49   469.0000     1.4000 
      50   367.0000     1.0800 
      51   320.0000     1.4100 
      52   450.0000     1.3640 
      53   317.0000     1.5100 
      54   340.0000     1.0900 
      55   340.0000     1.0900 
      56   570.0000     1.2290 
      57   317.0000     1.5220 
      58   340.0000     1.0900 
      59   340.0000     1.0900 
      60   317.0000     1.5100 
      61   317.0000     1.5220 
      62   340.0000     1.0900 
      63   340.0000     1.0900 
      64   320.0000     1.4100 
      65   469.0000     1.4000 
      66   469.0000     1.4000 
      67   570.0000     1.2290 
      68   317.0000     1.5100 
      69   340.0000     1.0900 
      70   340.0000     1.0900 
      71   570.0000     1.2290 
      72   317.0000     1.5220 
      73   340.0000     1.0900 
      74   340.0000     1.0900 
      75   469.0000     1.4000 
      76   367.0000     1.0800 
      77   469.0000     1.4000 
      78   450.0000     1.3640 
      79   469.0000     1.4000 
      80   469.0000     1.4000 
      81   570.0000     1.2290 
      82   469.0000     1.4000 
      83   450.0000     1.3640 
      84   367.0000     1.0800 
      85   320.0000     1.4100 
      86   469.0000     1.4000 
      87   367.0000     1.0800 
      88   469.0000     1.4000 
      89   450.0000     1.3640 
      90   317.0000     1.5100 
      91   320.0000     1.4100 
      92   317.0000     1.5220 
      93   340.0000     1.0900 
      94   340.0000     1.0900 
      95   469.0000     1.4000 
      96   450.0000     1.3640 
      97   367.0000     1.0800 
      98   320.0000     1.4100 
      99   340.0000     1.0900 
     100   340.0000     1.0900 
     101   317.0000     1.5220 
     102   340.0000     1.0900 
     103   340.0000     1.0900 
     104   570.0000     1.2290 
     105   320.0000     1.4100 
     106   317.0000     1.5220 
     107   340.0000     1.0900 
     108   340.0000     1.0900 
     109   570.0000     1.2290 
     110   317.0000     1.5220 
     111   340.0000     1.0900 
     112   340.0000     1.0900 
     113   570.0000     1.2290 
     114   570.0000     1.2290 
     115   340.0000     1.0900 
     116   340.0000     1.0900 
     117   340.0000     1.0900 
     118   340.0000     1.0900 
     119   340.0000     1.0900 
     120   340.0000     1.0900 
     121   340.0000     1.0900 
     122   340.0000     1.0900 
     123   340.0000     1.0900 
     124   340.0000     1.0900 
     125   469.0000     1.4000 
     126   469.0000     1.4000 
     127   469.0000     1.4000 
     128   469.0000     1.4000 
     129   469.0000     1.4000 
     130   317.0000     1.5100 

Angle Coeffs 

       1     63.000    120.000
       2     70.000    120.000
       3     63.000    120.000
       4     70.000    120.000
       5     63.000    120.000
       6     35.000    120.000
       7     40.000    109.500
       8     35.000    109.500
       9     35.000    109.500
      10     63.000    120.000
      11     35.000    120.000
      12     75.000    111.000
      13     70.000    120.000
      14     70.000    120.000
      15     70.000    120.000
      16     70.000    120.000
      17     50.000    109.500
      18     35.000    109.500
      19     35.000    109.500
      20     40.000    109.500
      21     35.000    109.500
      22     35.000    109.500
      23     63.000    120.000
      24     70.000    120.000
      25     63.000    120.000
      26     35.000    120.000
      27     75.000    111.000
      28     80.000    120.400
      29     70.000    120.000
      30     70.000    120.000
      31     63.000    120.000
      32     35.000    120.000
      33     75.000    111.000
      34     70.000    120.000
      35     50.000    109.500
      36     35.000    109.500
      37     35.000    109.500
      38     63.000    120.000
      39     70.000    120.000
      40     63.000    120.000
      41     35.000    120.000
      42     70.000    120.000
      43     50.000    109.500
      44     35.000    109.500
      45     35.000    109.500
      46     75.000    111.000
      47     80.000    120.400
      48     63.000    120.000
      49     35.000    120.000
      50     75.000    111.000
      51     70.000    120.000
      52     40.000    109.500
      53     35.000    109.500
      54     35.000    109.500
      55     80.000    120.400
      56     50.000    109.500
      57     35.000    109.500
      58     35.000    109.500
      59     70.000    120.000
      60     50.000    109.500
      61     35.000    109.500
      62     35.000    109.500
      63     75.000    111.000
      64     70.000    120.000
      65     70.000    120.000
      66     80.000    120.400
      67     40.000    109.500
      68     35.000    109.500
      69     35.000    109.500
      70     80.000    120.400
      71     50.000    109.500
      72     35.000    109.500
      73     35.000    109.500
      74     63.000    120.000
      75     35.000    120.000
      76     63.000    120.000
      77     70.000    120.000
      78     70.000    120.000
      79     70.000    120.000
      80     80.000    120.400
      81     63.000    120.000
      82     70.000    120.000
      83     35.000    120.000
      84     75.000    111.000
      85     63.000    120.000
      86     35.000    120.000
      87     63.000    120.000
      88     70.000    120.000
      89     70.000    120.000
      90     75.000    111.000
      91     50.000    109.500
      92     35.000    109.500
      93     35.000    109.500
      94     63.000    120.000
      95     70.000    120.000
      96     35.000    120.000
      97     75.000    111.000
      98     35.000    109.500
      99     35.000    109.500
     100     50.000    109.500
     101     35.000    109.500
     102     35.000    109.500
     103     80.000    120.400
     104     75.000    111.000
     105     50.000    109.500
     106     35.000    109.500
     107     35.000    109.500
     108     80.000    120.400
     109     50.000    109.500
     110     35.000    109.500
     111     35.000    109.500
     112     80.000    120.400
     113     80.000    120.400
     114     35.000    115.000
     115     35.000    115.000
     116     35.000    115.000
     117     35.000    115.000
     118     35.000    115.000
     119     35.000    115.000
     120     35.000    115.000
     121     35.000    115.000
     122     35.000    115.000
     123     35.000    115.000
     124     70.000    120.000
     125     33.000    107.800
     126     35.000    109.500
     127     35.000    109.500
     128     35.000    109.500
     129     33.000    107.800
     130     33.000    107.800
     131     35.000    109.500
     132     35.000    120.000
     133     35.000    109.500
     134     35.000    123.000
     135     35.000    109.500
     136     35.000    120.000
     137     70.000    120.000
     138     33.000    107.800
     139     70.000    120.000
     140     35.000    109.500
     141     35.000    120.000
     142     70.000    120.000
     143     63.000    120.000
     144     35.000    120.000
     145     35.000    109.500
     146     63.000    120.000
     147     70.000    120.000
     148     35.000    109.500
     149     63.000    120.000
     150     63.000    120.000
     151     35.000    120.000
     152     35.000    123.000
     153     35.000    109.500
     154     33.000    107.800
     155     35.000    109.500
     156     63.000    120.000
     157     35.000    123.000
     158     70.000    120.000
     159     70.000    120.000
     160     35.000    109.500
     161     35.000    120.000
     162     35.000    120.000
     163     35.000    109.500
     164     35.000    109.500
     165     63.000    120.000
     166     35.000    109.500
     167     35.000    109.500
     168     35.000    109.500
     169     35.000    123.000
     170     35.000    109.500
     171     33.000    107.800
     172     33.000    107.800
     173     70.000    120.000
     174     35.000    123.000
     175     35.000    109.500
     176     33.000    107.800
     177     35.000    109.500
     178     70.000    120.000
     179     33.000    107.800
     180     35.000    109.500
     181     35.000    120.000
     182     63.000    120.000
     183     70.000    120.000
     184     63.000    120.000
     185     33.000    107.800
     186     33.000    107.800
     187     70.000    120.000
     188     33.000    107.800
     189     63.000    120.000
     190     70.000    120.000
     191     35.000    109.500
     192     63.000    120.000
     193     35.000    109.500
     194     35.000    123.000
     195     33.000    107.800
     196     70.000    120.000
     197     35.000    109.500
     198     70.000    120.000
     199     33.000    107.800
     200     63.000    120.000
     201     70.000    120.000
     202     70.000    120.000
     203     40.000    109.500
     204     63.000    120.000
     205     35.000    109.500
     206     35.000    123.000
     207     33.000    107.800
     208     70.000    120.000
     209     63.000    120.000
     210     35.000    120.000
     211     35.000    123.000
     212     35.000    109.500
     213     35.000    109.500
     214     63.000    120.000
     215     35.000    109.500
     216     35.000    123.000
     217     35.000    109.500
     218     35.000    123.000
     219     35.000    109.500
     220     35.000    120.000

Dihedral Coeffs  

       1      0.000      7.250      0.000      0.000 
       2      0.000      7.250      0.000      0.000 
       3      0.000      0.000      0.000      0.000 
       4      0.000      7.250      0.000      0.000 
       5      0.000      3.000      0.000      0.000 
       6      0.000      0.000      0.000      0.000 
       7      0.650     -0.250      0.670      0.000 
       8      0.000      0.000      0.000      0.000 
       9      0.000      7.250      0.000      0.000 
      10      0.000      7.250      0.000      0.000 
      11      0.000      3.000      0.000      0.000 
      12      0.000      0.000      0.000      0.000 
      13      0.000      0.000      0.000      0.000 
      14      0.000      7.250      0.000      0.000 
      15      0.000      3.000      0.000      0.000 
      16      0.650     -0.250      0.670      0.000 
      17      0.000      7.250      0.000      0.000 
      18      0.000      7.250      0.000      0.000 
      19      0.650     -0.250      0.670      0.000 
      20      0.000      3.000      0.000      0.000 
      21      0.000      0.000      0.000      0.000 
      22      0.000      7.250      0.000      0.000 
      23      0.000      3.000      0.000      0.000 
      24      0.000      0.000      0.000      0.000 
      25      0.000      0.000      0.000      0.000 
      26      0.650     -0.250      0.670      0.000 
      27      0.650     -0.250      0.670      0.000 
      28      0.000      3.000      0.000      0.000 
      29      0.000      0.000      0.000      0.000 
      30      0.000      0.000      0.000      0.000 
      31      0.000      0.000      0.000      0.000 
      32      0.000      0.000      0.000      0.000 
      33      0.650     -0.250      0.670      0.000 
      34      0.000      7.250      0.000      0.000 
      35      0.000      7.250      0.000      0.000 
      36      0.000      0.000      0.000      0.000 
      37      0.000      0.000      0.000      0.000 
      38      0.000      7.250      0.000      0.000 
      39      0.000      3.000      0.000      0.000 
      40      0.000      7.250      0.000      0.000 
      41      0.000      7.250      0.000      0.000 
      42      0.000      3.000      0.000      0.000 
      43      0.650     -0.250      0.670      0.000 
      44      0.000      7.250      0.000      0.000 
      45      0.000      3.000      0.000      0.000 
      46      0.650     -0.250      0.670      0.000 
      47      0.000      0.000      0.000      0.000 
      48      0.000      3.000      0.000      0.000 
      49      0.650     -0.250      0.670      0.000 
      50      0.000      0.000      0.000      0.000 
      51      0.650     -0.250      0.670      0.000 
      52      0.000      0.000      0.000      0.000 
      53      0.000      0.000      0.000      0.000 
      54      0.000      7.250      0.000      0.000 
      55      0.000      0.000      0.000      0.000 
      56      0.000      7.250      0.000      0.000 
      57      0.000      7.250      0.000      0.000 
      58      0.000      0.000      0.000      0.000 
      59      0.000      0.000      0.360      0.000 
      60      0.000      0.000      0.360      0.000 
      61      0.000      0.000      0.000      0.000 
      62      0.000      7.250      0.000      0.000 
      63      0.000      7.250      0.000      0.000 
      64      0.000      0.000      0.000      0.000 
      65      0.000      7.250      0.000      0.000 
      66      0.000      0.000      0.760      0.000 
      67      0.000      0.000      0.000      0.000 
      68      0.000      0.000      0.000      0.000 
      69      0.000      0.000      0.000      0.000 
      70      0.000      7.250      0.000      0.000 
      71      0.000      7.250      0.000      0.000 
      72      0.000      0.000      0.000      0.000 
      73      0.000      0.000      0.000      0.000 
      74      0.000      0.000      0.000      0.000 
      75      0.000      7.250      0.000      0.000 
      76      0.000      0.000      0.760      0.000 
      77      0.000      7.250      0.000      0.000 
      78      0.000      7.250      0.000      0.000 
      79      0.000      0.000      0.000      0.000 
      80      0.000      7.250      0.000      0.000 
      81      0.000      0.000      0.000      0.000 
      82      0.000      7.250      0.000      0.000 
      83      0.000      7.250      0.000      0.000 
      84      0.000      0.000      0.360      0.000 
      85      0.000      0.000      0.000      0.000 
      86      0.000      0.000      0.468      0.000 
      87      0.000      0.000      0.000      0.000 
      88      0.000      0.000      0.760      0.000 
      89      0.000      3.000      0.000      0.000 
      90      0.000      0.000      0.000      0.000 
      91      0.000      7.250      0.000      0.000 
      92      0.000      7.250      0.000      0.000 
      93      0.000      0.000      0.000      0.000 
      94      0.000      7.250      0.000      0.000 
      95      0.000      7.250      0.000      0.000 
      96      0.000      0.000      0.000      0.000 
      97      0.000      7.250      0.000      0.000 
      98      0.000      7.250      0.000      0.000 
      99      0.000      7.250      0.000      0.000 
     100      0.000      7.250      0.000      0.000 
     101      0.000      7.250      0.000      0.000 
     102      0.000      7.250      0.000      0.000 
     103      0.000      7.250      0.000      0.000 
     104      0.000      0.000      0.760      0.000 
     105      0.000      0.000      0.000      0.000 
     106      0.000      0.000      0.000      0.000 
     107      0.000      7.250      0.000      0.000 
     108      0.000      0.000      0.360      0.000 
     109      0.000      0.000      0.760      0.000 
     110      0.000      0.000      0.760      0.000 
     111      0.000      7.250      0.000      0.000 
     112      0.000      7.250      0.000      0.000 
     113      0.000      7.250      0.000      0.000 
     114      0.000      0.000      0.000      0.000 
     115      0.000      0.000      0.000      0.000 
     116      0.000      7.250      0.000      0.000 
     117      0.000      7.250      0.000      0.000 
     118      0.000      0.000      0.000      0.000 
     119      0.000      0.000      0.360      0.000 
     120      0.000      0.000      0.360      0.000 
     121      0.000      7.250      0.000      0.000 
     122      0.000      0.000      0.000      0.000 
     123      0.000      7.250      0.000      0.000 
     124      0.000      7.250      0.000      0.000 
     125      0.000      0.000      0.468      0.000 
     126      0.000      7.250      0.000      0.000 
     127      0.000      0.000      0.000      0.000 
     128      0.000      7.250      0.000      0.000 
     129      0.000      0.000      0.468      0.000 
     130      0.000      7.250      0.000      0.000 
     131      0.000      0.000      0.360      0.000 
     132      0.000      0.000      0.360      0.000 
     133      0.000      0.000      0.360      0.000 
     134      0.000      0.000      0.000      0.000 
     135      0.000      3.000      0.000      0.000 
     136      0.000      0.000      0.000      0.000 
     137      0.000      0.000      0.760      0.000 
     138      0.000      0.000      0.760      0.000 
     139      0.000      7.250      0.000      0.000 
     140      0.000      0.000      0.000      0.000 
     141      0.000      0.000      0.760      0.000 
     142      0.000      0.000      0.000      0.000 
     143      0.000      0.000      0.000      0.000 
     144      0.000      7.250      0.000      0.000 
     145      0.000      7.250      0.000      0.000 
     146      0.000      7.250      0.000      0.000 
     147      0.000      0.000      0.000      0.000 
     148      0.000      0.000      0.760      0.000 
     149      0.000      7.250      0.000      0.000 
     150      0.000      7.250      0.000      0.000 
     151      0.000      0.000      0.000      0.000 
     152      0.000      0.000      0.000      0.000 
     153      0.000      0.000      0.000      0.000 
     154      0.000      0.000      0.000      0.000 
     155      0.000      0.000      0.000      0.000 
     156      0.000      0.000      0.360      0.000 
     157      0.000      7.250      0.000      0.000 
     158      0.000      0.000      0.468      0.000 
     159      0.000      7.250      0.000      0.000 
     160      0.000      7.250      0.000      0.000 
     161      0.000      7.250      0.000      0.000 
     162      0.000      0.000      0.000      0.000 
     163      0.000      0.000      0.760      0.000 
     164      0.000      7.250      0.000      0.000 
     165      0.000      7.250      0.000      0.000 
     166      0.000      7.250      0.000      0.000 
     167      0.000      7.250      0.000      0.000 
     168      0.000      3.000      0.000      0.000 
     169      0.000      0.000      0.000      0.000 
     170      0.000      7.250      0.000      0.000 
     171      0.000      7.250      0.000      0.000 
     172      0.000      7.250      0.000      0.000 
     173      0.000      0.000      0.000      0.000 
     174      0.000      0.000      0.360      0.000 
     175      0.000      7.250      0.000      0.000 
     176      0.000      3.000      0.000      0.000 
     177      0.000      3.000      0.000      0.000 
     178      0.000      7.250      0.000      0.000 
     179      0.000      0.000      0.000      0.000 
     180      0.000      0.000      0.000      0.000 
     181      0.000      7.250      0.000      0.000 
     182      0.000      0.000      0.000      0.000 
     183      0.000      7.250      0.000      0.000 
     184      0.000      7.250      0.000      0.000 
     185      0.000      0.000      0.000      0.000 
     186      0.000      7.250      0.000      0.000 
     187      0.000      7.250      0.000      0.000 
     188      0.000      3.000      0.000      0.000 
     189      0.000      0.000      0.000      0.000 
     190      0.000      7.250      0.000      0.000 
     191      0.000      0.000      0.000      0.000 
     192      0.000      7.250      0.000      0.000 
     193      0.000      7.250      0.000      0.000 
     194      0.000      0.000      0.000      0.000 
     195      0.000      0.000      0.760      0.000 
     196      0.000      0.000      0.360      0.000 
     197      0.000      0.000      0.468      0.000 
     198      0.000      0.000      0.000      0.000 
     199      0.000      0.000      0.468      0.000 
     200      0.000      0.000      0.000      0.000 
     201      0.000      7.250      0.000      0.000 
     202      0.000      0.000      0.000      0.000 
     203      0.000      7.250      0.000      0.000 
     204      0.000      0.000      0.360      0.000 
     205      0.000      7.250      0.000      0.000 
     206      0.000      0.000      0.000      0.000 
     207      0.000      7.250      0.000      0.000 
     208      0.000      0.000      0.000      0.000 
     209      0.000      7.250      0.000      0.000 
     210      0.000      0.000      0.760      0.000 
     211      0.000      0.000      0.000      0.000 
     212      0.000      0.000      0.468      0.000 
     213      0.000      7.250      0.000      0.000 
     214      0.000      0.000      0.000      0.000 
     215      0.000      0.000      0.000      0.000 
     216      0.000      0.000      0.000      0.000 
     217      0.000      0.000      0.360      0.000 
     218      0.000      7.250      0.000      0.000 
     219      0.000      0.000      0.000      0.000 